<?xml version="1.0" encoding="UTF-8"?>

<!-- generated on 12/1/2017 12:50:32 PM by SUMO gui Version 0.31.0
<?xml version="1.0" encoding="UTF-8"?>

<configuration xmlns:xsi="http://www.w3.org/2001/XMLSchema-instance" xsi:noNamespaceSchemaLocation="http://sumo.dlr.de/xsd/sumoConfiguration.xsd">

    <input>
        <net-file value="C:\Users\SHUBHAM%20%20THAKRAL\Desktop\samsung%20hackathon\newwwww\intersection3.net.xml"/>
        <route-files value="C:\Users\SHUBHAM%20%20THAKRAL\Desktop\samsung%20hackathon\newwwww\intersection3.rou.xml"/>
        <additional-files value="C:\Users\SHUBHAM%20%20THAKRAL\Desktop\samsung%20hackathon\newwwww\intersection3.det.xml"/>
    </input>

    <time>
        <begin value="0"/>
    </time>

    <report>
        <verbose value="true"/>
        <no-step-log value="true"/>
    </report>

    <traci_server>
        <remote-port value="51627"/>
    </traci_server>

</configuration>
-->

<detector xmlns:xsi="http://www.w3.org/2001/XMLSchema-instance" xsi:noNamespaceSchemaLocation="http://sumo.dlr.de/xsd/det_e1_file.xsd">
    <interval begin="0.00" end="30.00" id="1" nVehContrib="0" flow="0.00" occupancy="0.00" speed="-1.00" length="-1.00" nVehEntered="0"/>
    <interval begin="0.00" end="30.00" id="3" nVehContrib="0" flow="0.00" occupancy="0.00" speed="-1.00" length="-1.00" nVehEntered="0"/>
    <interval begin="0.00" end="30.00" id="0" nVehContrib="2" flow="240.00" occupancy="2.96" speed="11.28" length="5.00" nVehEntered="2"/>
    <interval begin="0.00" end="30.00" id="2" nVehContrib="2" flow="240.00" occupancy="2.97" speed="11.23" length="5.00" nVehEntered="2"/>
    <interval begin="0.00" end="30.00" id="5" nVehContrib="0" flow="0.00" occupancy="0.00" speed="-1.00" length="-1.00" nVehEntered="0"/>
    <interval begin="0.00" end="30.00" id="7" nVehContrib="0" flow="0.00" occupancy="0.00" speed="-1.00" length="-1.00" nVehEntered="0"/>
    <interval begin="0.00" end="30.00" id="4" nVehContrib="1" flow="120.00" occupancy="1.50" speed="11.14" length="5.00" nVehEntered="1"/>
    <interval begin="0.00" end="30.00" id="6" nVehContrib="2" flow="240.00" occupancy="3.02" speed="11.05" length="5.00" nVehEntered="2"/>
    <interval begin="30.00" end="60.00" id="1" nVehContrib="0" flow="0.00" occupancy="0.00" speed="-1.00" length="-1.00" nVehEntered="0"/>
    <interval begin="30.00" end="60.00" id="3" nVehContrib="0" flow="0.00" occupancy="0.00" speed="-1.00" length="-1.00" nVehEntered="0"/>
    <interval begin="30.00" end="60.00" id="0" nVehContrib="3" flow="360.00" occupancy="4.57" speed="10.94" length="5.00" nVehEntered="3"/>
    <interval begin="30.00" end="60.00" id="2" nVehContrib="4" flow="480.00" occupancy="6.04" speed="11.06" length="5.00" nVehEntered="4"/>
    <interval begin="30.00" end="60.00" id="5" nVehContrib="0" flow="0.00" occupancy="0.00" speed="-1.00" length="-1.00" nVehEntered="0"/>
    <interval begin="30.00" end="60.00" id="7" nVehContrib="0" flow="0.00" occupancy="0.00" speed="-1.00" length="-1.00" nVehEntered="0"/>
    <interval begin="30.00" end="60.00" id="4" nVehContrib="4" flow="480.00" occupancy="6.28" speed="10.63" length="5.00" nVehEntered="4"/>
    <interval begin="30.00" end="60.00" id="6" nVehContrib="3" flow="360.00" occupancy="4.45" speed="11.23" length="5.00" nVehEntered="3"/>
    <interval begin="60.00" end="90.00" id="1" nVehContrib="0" flow="0.00" occupancy="0.00" speed="-1.00" length="-1.00" nVehEntered="0"/>
    <interval begin="60.00" end="90.00" id="3" nVehContrib="0" flow="0.00" occupancy="0.00" speed="-1.00" length="-1.00" nVehEntered="0"/>
    <interval begin="60.00" end="90.00" id="0" nVehContrib="4" flow="480.00" occupancy="6.00" speed="11.14" length="5.00" nVehEntered="4"/>
    <interval begin="60.00" end="90.00" id="2" nVehContrib="3" flow="360.00" occupancy="4.42" speed="11.31" length="5.00" nVehEntered="3"/>
    <interval begin="60.00" end="90.00" id="5" nVehContrib="0" flow="0.00" occupancy="0.00" speed="-1.00" length="-1.00" nVehEntered="0"/>
    <interval begin="60.00" end="90.00" id="7" nVehContrib="0" flow="0.00" occupancy="0.00" speed="-1.00" length="-1.00" nVehEntered="0"/>
    <interval begin="60.00" end="90.00" id="4" nVehContrib="4" flow="480.00" occupancy="6.00" speed="11.12" length="5.00" nVehEntered="4"/>
    <interval begin="60.00" end="90.00" id="6" nVehContrib="4" flow="480.00" occupancy="5.93" speed="11.24" length="5.00" nVehEntered="4"/>
    <interval begin="90.00" end="120.00" id="1" nVehContrib="10" flow="1200.00" occupancy="25.36" speed="7.00" length="5.00" nVehEntered="10"/>
    <interval begin="90.00" end="120.00" id="3" nVehContrib="6" flow="720.00" occupancy="8.00" speed="12.53" length="5.00" nVehEntered="6"/>
    <interval begin="90.00" end="120.00" id="0" nVehContrib="0" flow="0.00" occupancy="0.00" speed="-1.00" length="-1.00" nVehEntered="0"/>
    <interval begin="90.00" end="120.00" id="2" nVehContrib="1" flow="120.00" occupancy="1.47" speed="11.33" length="5.00" nVehEntered="1"/>
    <interval begin="90.00" end="120.00" id="5" nVehContrib="5" flow="600.00" occupancy="6.70" speed="12.46" length="5.00" nVehEntered="5"/>
    <interval begin="90.00" end="120.00" id="7" nVehContrib="10" flow="1200.00" occupancy="26.48" speed="7.12" length="5.00" nVehEntered="11"/>
    <interval begin="90.00" end="120.00" id="4" nVehContrib="0" flow="0.00" occupancy="0.00" speed="-1.00" length="-1.00" nVehEntered="0"/>
    <interval begin="90.00" end="120.00" id="6" nVehContrib="0" flow="0.00" occupancy="0.00" speed="-1.00" length="-1.00" nVehEntered="0"/>
    <interval begin="120.00" end="150.00" id="1" nVehContrib="5" flow="600.00" occupancy="7.87" speed="10.62" length="5.00" nVehEntered="5"/>
    <interval begin="120.00" end="150.00" id="3" nVehContrib="9" flow="1080.00" occupancy="10.97" speed="13.67" length="5.00" nVehEntered="9"/>
    <interval begin="120.00" end="150.00" id="0" nVehContrib="0" flow="0.00" occupancy="0.00" speed="-1.00" length="-1.00" nVehEntered="0"/>
    <interval begin="120.00" end="150.00" id="2" nVehContrib="0" flow="0.00" occupancy="0.00" speed="-1.00" length="-1.00" nVehEntered="0"/>
    <interval begin="120.00" end="150.00" id="5" nVehContrib="10" flow="1200.00" occupancy="12.26" speed="13.60" length="5.00" nVehEntered="10"/>
    <interval begin="120.00" end="150.00" id="7" nVehContrib="5" flow="600.00" occupancy="6.60" speed="10.77" length="5.00" nVehEntered="4"/>
    <interval begin="120.00" end="150.00" id="4" nVehContrib="0" flow="0.00" occupancy="0.00" speed="-1.00" length="-1.00" nVehEntered="0"/>
    <interval begin="120.00" end="150.00" id="6" nVehContrib="0" flow="0.00" occupancy="0.00" speed="-1.00" length="-1.00" nVehEntered="0"/>
    <interval begin="150.00" end="180.00" id="1" nVehContrib="5" flow="600.00" occupancy="7.51" speed="11.10" length="5.00" nVehEntered="5"/>
    <interval begin="150.00" end="180.00" id="3" nVehContrib="3" flow="360.00" occupancy="3.65" speed="13.70" length="5.00" nVehEntered="3"/>
    <interval begin="150.00" end="180.00" id="0" nVehContrib="0" flow="0.00" occupancy="0.00" speed="-1.00" length="-1.00" nVehEntered="0"/>
    <interval begin="150.00" end="180.00" id="2" nVehContrib="0" flow="0.00" occupancy="0.00" speed="-1.00" length="-1.00" nVehEntered="0"/>
    <interval begin="150.00" end="180.00" id="5" nVehContrib="4" flow="480.00" occupancy="4.89" speed="13.63" length="5.00" nVehEntered="4"/>
    <interval begin="150.00" end="180.00" id="7" nVehContrib="5" flow="600.00" occupancy="7.50" speed="11.12" length="5.00" nVehEntered="5"/>
    <interval begin="150.00" end="180.00" id="4" nVehContrib="0" flow="0.00" occupancy="0.00" speed="-1.00" length="-1.00" nVehEntered="0"/>
    <interval begin="150.00" end="180.00" id="6" nVehContrib="0" flow="0.00" occupancy="0.00" speed="-1.00" length="-1.00" nVehEntered="0"/>
    <interval begin="180.00" end="210.00" id="1" nVehContrib="0" flow="0.00" occupancy="0.00" speed="-1.00" length="-1.00" nVehEntered="0"/>
    <interval begin="180.00" end="210.00" id="3" nVehContrib="1" flow="120.00" occupancy="1.21" speed="13.73" length="5.00" nVehEntered="1"/>
    <interval begin="180.00" end="210.00" id="0" nVehContrib="10" flow="1200.00" occupancy="26.04" speed="6.79" length="5.00" nVehEntered="10"/>
    <interval begin="180.00" end="210.00" id="2" nVehContrib="10" flow="1200.00" occupancy="26.21" speed="6.90" length="5.00" nVehEntered="10"/>
    <interval begin="180.00" end="210.00" id="5" nVehContrib="0" flow="0.00" occupancy="0.00" speed="-1.00" length="-1.00" nVehEntered="0"/>
    <interval begin="180.00" end="210.00" id="7" nVehContrib="0" flow="0.00" occupancy="0.00" speed="-1.00" length="-1.00" nVehEntered="0"/>
    <interval begin="180.00" end="210.00" id="4" nVehContrib="10" flow="1200.00" occupancy="25.10" speed="7.10" length="5.00" nVehEntered="10"/>
    <interval begin="180.00" end="210.00" id="6" nVehContrib="10" flow="1200.00" occupancy="25.34" speed="7.16" length="5.00" nVehEntered="10"/>
    <interval begin="210.00" end="240.00" id="1" nVehContrib="0" flow="0.00" occupancy="0.00" speed="-1.00" length="-1.00" nVehEntered="0"/>
    <interval begin="210.00" end="240.00" id="3" nVehContrib="0" flow="0.00" occupancy="0.00" speed="-1.00" length="-1.00" nVehEntered="0"/>
    <interval begin="210.00" end="240.00" id="0" nVehContrib="6" flow="720.00" occupancy="9.49" speed="10.56" length="5.00" nVehEntered="6"/>
    <interval begin="210.00" end="240.00" id="2" nVehContrib="6" flow="720.00" occupancy="9.67" speed="10.39" length="5.00" nVehEntered="6"/>
    <interval begin="210.00" end="240.00" id="5" nVehContrib="0" flow="0.00" occupancy="0.00" speed="-1.00" length="-1.00" nVehEntered="0"/>
    <interval begin="210.00" end="240.00" id="7" nVehContrib="0" flow="0.00" occupancy="0.00" speed="-1.00" length="-1.00" nVehEntered="0"/>
    <interval begin="210.00" end="240.00" id="4" nVehContrib="6" flow="720.00" occupancy="9.30" speed="10.78" length="5.00" nVehEntered="6"/>
    <interval begin="210.00" end="240.00" id="6" nVehContrib="4" flow="480.00" occupancy="6.88" speed="10.48" length="5.00" nVehEntered="5"/>
    <interval begin="240.00" end="270.00" id="1" nVehContrib="0" flow="0.00" occupancy="0.00" speed="-1.00" length="-1.00" nVehEntered="0"/>
    <interval begin="240.00" end="270.00" id="3" nVehContrib="0" flow="0.00" occupancy="0.00" speed="-1.00" length="-1.00" nVehEntered="0"/>
    <interval begin="240.00" end="270.00" id="0" nVehContrib="6" flow="720.00" occupancy="9.21" speed="10.86" length="5.00" nVehEntered="6"/>
    <interval begin="240.00" end="270.00" id="2" nVehContrib="6" flow="720.00" occupancy="8.82" speed="11.34" length="5.00" nVehEntered="6"/>
    <interval begin="240.00" end="270.00" id="5" nVehContrib="0" flow="0.00" occupancy="0.00" speed="-1.00" length="-1.00" nVehEntered="0"/>
    <interval begin="240.00" end="270.00" id="7" nVehContrib="0" flow="0.00" occupancy="0.00" speed="-1.00" length="-1.00" nVehEntered="0"/>
    <interval begin="240.00" end="270.00" id="4" nVehContrib="6" flow="720.00" occupancy="9.26" speed="10.81" length="5.00" nVehEntered="6"/>
    <interval begin="240.00" end="270.00" id="6" nVehContrib="6" flow="720.00" occupancy="8.63" speed="10.96" length="5.00" nVehEntered="5"/>
    <interval begin="270.00" end="300.00" id="1" nVehContrib="9" flow="1080.00" occupancy="25.36" speed="6.57" length="5.00" nVehEntered="10"/>
    <interval begin="270.00" end="300.00" id="3" nVehContrib="6" flow="720.00" occupancy="11.40" speed="10.68" length="5.00" nVehEntered="6"/>
    <interval begin="270.00" end="300.00" id="0" nVehContrib="0" flow="0.00" occupancy="0.00" speed="-1.00" length="-1.00" nVehEntered="0"/>
    <interval begin="270.00" end="300.00" id="2" nVehContrib="0" flow="0.00" occupancy="0.00" speed="-1.00" length="-1.00" nVehEntered="0"/>
    <interval begin="270.00" end="300.00" id="5" nVehContrib="6" flow="720.00" occupancy="11.09" speed="10.94" length="5.00" nVehEntered="6"/>
    <interval begin="270.00" end="300.00" id="7" nVehContrib="10" flow="1200.00" occupancy="26.27" speed="6.92" length="5.00" nVehEntered="10"/>
    <interval begin="270.00" end="300.00" id="4" nVehContrib="1" flow="120.00" occupancy="1.48" speed="11.25" length="5.00" nVehEntered="1"/>
    <interval begin="270.00" end="300.00" id="6" nVehContrib="0" flow="0.00" occupancy="0.00" speed="-1.00" length="-1.00" nVehEntered="0"/>
    <interval begin="300.00" end="330.00" id="1" nVehContrib="5" flow="600.00" occupancy="7.53" speed="9.99" length="5.00" nVehEntered="4"/>
    <interval begin="300.00" end="330.00" id="3" nVehContrib="10" flow="1200.00" occupancy="12.32" speed="13.54" length="5.00" nVehEntered="10"/>
    <interval begin="300.00" end="330.00" id="0" nVehContrib="0" flow="0.00" occupancy="0.00" speed="-1.00" length="-1.00" nVehEntered="0"/>
    <interval begin="300.00" end="330.00" id="2" nVehContrib="0" flow="0.00" occupancy="0.00" speed="-1.00" length="-1.00" nVehEntered="0"/>
    <interval begin="300.00" end="330.00" id="5" nVehContrib="9" flow="1080.00" occupancy="11.08" speed="13.54" length="5.00" nVehEntered="9"/>
    <interval begin="300.00" end="330.00" id="7" nVehContrib="5" flow="600.00" occupancy="7.87" speed="10.63" length="5.00" nVehEntered="5"/>
    <interval begin="300.00" end="330.00" id="4" nVehContrib="0" flow="0.00" occupancy="0.00" speed="-1.00" length="-1.00" nVehEntered="0"/>
    <interval begin="300.00" end="330.00" id="6" nVehContrib="0" flow="0.00" occupancy="0.00" speed="-1.00" length="-1.00" nVehEntered="0"/>
    <interval begin="330.00" end="360.00" id="1" nVehContrib="5" flow="600.00" occupancy="7.50" speed="11.13" length="5.00" nVehEntered="5"/>
    <interval begin="330.00" end="360.00" id="3" nVehContrib="3" flow="360.00" occupancy="3.65" speed="13.69" length="5.00" nVehEntered="3"/>
    <interval begin="330.00" end="360.00" id="0" nVehContrib="0" flow="0.00" occupancy="0.00" speed="-1.00" length="-1.00" nVehEntered="0"/>
    <interval begin="330.00" end="360.00" id="2" nVehContrib="0" flow="0.00" occupancy="0.00" speed="-1.00" length="-1.00" nVehEntered="0"/>
    <interval begin="330.00" end="360.00" id="5" nVehContrib="3" flow="360.00" occupancy="3.67" speed="13.63" length="5.00" nVehEntered="3"/>
    <interval begin="330.00" end="360.00" id="7" nVehContrib="4" flow="480.00" occupancy="7.29" speed="11.00" length="5.00" nVehEntered="5"/>
    <interval begin="330.00" end="360.00" id="4" nVehContrib="0" flow="0.00" occupancy="0.00" speed="-1.00" length="-1.00" nVehEntered="0"/>
    <interval begin="330.00" end="360.00" id="6" nVehContrib="0" flow="0.00" occupancy="0.00" speed="-1.00" length="-1.00" nVehEntered="0"/>
    <interval begin="360.00" end="390.00" id="1" nVehContrib="0" flow="0.00" occupancy="0.00" speed="-1.00" length="-1.00" nVehEntered="0"/>
    <interval begin="360.00" end="390.00" id="3" nVehContrib="1" flow="120.00" occupancy="1.20" speed="13.86" length="5.00" nVehEntered="1"/>
    <interval begin="360.00" end="390.00" id="0" nVehContrib="10" flow="1200.00" occupancy="25.67" speed="7.05" length="5.00" nVehEntered="10"/>
    <interval begin="360.00" end="390.00" id="2" nVehContrib="9" flow="1080.00" occupancy="23.61" speed="6.87" length="5.00" nVehEntered="9"/>
    <interval begin="360.00" end="390.00" id="5" nVehContrib="1" flow="120.00" occupancy="1.23" speed="13.52" length="5.00" nVehEntered="1"/>
    <interval begin="360.00" end="390.00" id="7" nVehContrib="1" flow="120.00" occupancy="0.34" speed="10.71" length="5.00" nVehEntered="0"/>
    <interval begin="360.00" end="390.00" id="4" nVehContrib="9" flow="1080.00" occupancy="25.33" speed="6.72" length="5.00" nVehEntered="10"/>
    <interval begin="360.00" end="390.00" id="6" nVehContrib="10" flow="1200.00" occupancy="25.94" speed="6.95" length="5.00" nVehEntered="10"/>
    <interval begin="390.00" end="420.00" id="1" nVehContrib="0" flow="0.00" occupancy="0.00" speed="-1.00" length="-1.00" nVehEntered="0"/>
    <interval begin="390.00" end="420.00" id="3" nVehContrib="0" flow="0.00" occupancy="0.00" speed="-1.00" length="-1.00" nVehEntered="0"/>
    <interval begin="390.00" end="420.00" id="0" nVehContrib="5" flow="600.00" occupancy="7.85" speed="10.64" length="5.00" nVehEntered="5"/>
    <interval begin="390.00" end="420.00" id="2" nVehContrib="7" flow="840.00" occupancy="10.99" speed="10.66" length="5.00" nVehEntered="7"/>
    <interval begin="390.00" end="420.00" id="5" nVehContrib="0" flow="0.00" occupancy="0.00" speed="-1.00" length="-1.00" nVehEntered="0"/>
    <interval begin="390.00" end="420.00" id="7" nVehContrib="0" flow="0.00" occupancy="0.00" speed="-1.00" length="-1.00" nVehEntered="0"/>
    <interval begin="390.00" end="420.00" id="4" nVehContrib="6" flow="720.00" occupancy="7.87" speed="10.68" length="5.00" nVehEntered="5"/>
    <interval begin="390.00" end="420.00" id="6" nVehContrib="5" flow="600.00" occupancy="7.95" speed="10.50" length="5.00" nVehEntered="5"/>
    <interval begin="420.00" end="450.00" id="1" nVehContrib="0" flow="0.00" occupancy="0.00" speed="-1.00" length="-1.00" nVehEntered="0"/>
    <interval begin="420.00" end="450.00" id="3" nVehContrib="0" flow="0.00" occupancy="0.00" speed="-1.00" length="-1.00" nVehEntered="0"/>
    <interval begin="420.00" end="450.00" id="0" nVehContrib="6" flow="720.00" occupancy="9.15" speed="10.93" length="5.00" nVehEntered="6"/>
    <interval begin="420.00" end="450.00" id="2" nVehContrib="6" flow="720.00" occupancy="9.07" speed="11.03" length="5.00" nVehEntered="6"/>
    <interval begin="420.00" end="450.00" id="5" nVehContrib="0" flow="0.00" occupancy="0.00" speed="-1.00" length="-1.00" nVehEntered="0"/>
    <interval begin="420.00" end="450.00" id="7" nVehContrib="0" flow="0.00" occupancy="0.00" speed="-1.00" length="-1.00" nVehEntered="0"/>
    <interval begin="420.00" end="450.00" id="4" nVehContrib="6" flow="720.00" occupancy="9.03" speed="11.08" length="5.00" nVehEntered="6"/>
    <interval begin="420.00" end="450.00" id="6" nVehContrib="6" flow="720.00" occupancy="9.19" speed="10.88" length="5.00" nVehEntered="6"/>
    <interval begin="450.00" end="480.00" id="1" nVehContrib="9" flow="1080.00" occupancy="23.83" speed="6.79" length="5.00" nVehEntered="9"/>
    <interval begin="450.00" end="480.00" id="3" nVehContrib="5" flow="600.00" occupancy="11.36" speed="10.09" length="5.00" nVehEntered="6"/>
    <interval begin="450.00" end="480.00" id="0" nVehContrib="0" flow="0.00" occupancy="0.00" speed="-1.00" length="-1.00" nVehEntered="0"/>
    <interval begin="450.00" end="480.00" id="2" nVehContrib="0" flow="0.00" occupancy="0.00" speed="-1.00" length="-1.00" nVehEntered="0"/>
    <interval begin="450.00" end="480.00" id="5" nVehContrib="5" flow="600.00" occupancy="10.78" speed="10.37" length="5.00" nVehEntered="6"/>
    <interval begin="450.00" end="480.00" id="7" nVehContrib="8" flow="960.00" occupancy="23.72" speed="6.52" length="5.00" nVehEntered="9"/>
    <interval begin="450.00" end="480.00" id="4" nVehContrib="0" flow="0.00" occupancy="0.00" speed="-1.00" length="-1.00" nVehEntered="0"/>
    <interval begin="450.00" end="480.00" id="6" nVehContrib="0" flow="0.00" occupancy="0.00" speed="-1.00" length="-1.00" nVehEntered="0"/>
    <interval begin="480.00" end="510.00" id="1" nVehContrib="6" flow="720.00" occupancy="9.52" speed="10.53" length="5.00" nVehEntered="6"/>
    <interval begin="480.00" end="510.00" id="3" nVehContrib="10" flow="1200.00" occupancy="11.03" speed="13.57" length="5.00" nVehEntered="9"/>
    <interval begin="480.00" end="510.00" id="0" nVehContrib="0" flow="0.00" occupancy="0.00" speed="-1.00" length="-1.00" nVehEntered="0"/>
    <interval begin="480.00" end="510.00" id="2" nVehContrib="0" flow="0.00" occupancy="0.00" speed="-1.00" length="-1.00" nVehEntered="0"/>
    <interval begin="480.00" end="510.00" id="5" nVehContrib="10" flow="1200.00" occupancy="11.46" speed="13.52" length="5.00" nVehEntered="9"/>
    <interval begin="480.00" end="510.00" id="7" nVehContrib="6" flow="720.00" occupancy="8.09" speed="10.18" length="5.00" nVehEntered="5"/>
    <interval begin="480.00" end="510.00" id="4" nVehContrib="0" flow="0.00" occupancy="0.00" speed="-1.00" length="-1.00" nVehEntered="0"/>
    <interval begin="480.00" end="510.00" id="6" nVehContrib="0" flow="0.00" occupancy="0.00" speed="-1.00" length="-1.00" nVehEntered="0"/>
    <interval begin="510.00" end="540.00" id="1" nVehContrib="4" flow="480.00" occupancy="6.14" speed="10.86" length="5.00" nVehEntered="4"/>
    <interval begin="510.00" end="540.00" id="3" nVehContrib="3" flow="360.00" occupancy="3.66" speed="13.65" length="5.00" nVehEntered="3"/>
    <interval begin="510.00" end="540.00" id="0" nVehContrib="0" flow="0.00" occupancy="0.00" speed="-1.00" length="-1.00" nVehEntered="0"/>
    <interval begin="510.00" end="540.00" id="2" nVehContrib="0" flow="0.00" occupancy="0.00" speed="-1.00" length="-1.00" nVehEntered="0"/>
    <interval begin="510.00" end="540.00" id="5" nVehContrib="4" flow="480.00" occupancy="4.85" speed="13.75" length="5.00" nVehEntered="4"/>
    <interval begin="510.00" end="540.00" id="7" nVehContrib="5" flow="600.00" occupancy="7.50" speed="11.12" length="5.00" nVehEntered="5"/>
    <interval begin="510.00" end="540.00" id="4" nVehContrib="0" flow="0.00" occupancy="0.00" speed="-1.00" length="-1.00" nVehEntered="0"/>
    <interval begin="510.00" end="540.00" id="6" nVehContrib="0" flow="0.00" occupancy="0.00" speed="-1.00" length="-1.00" nVehEntered="0"/>
    <interval begin="540.00" end="570.00" id="1" nVehContrib="1" flow="120.00" occupancy="1.51" speed="11.06" length="5.00" nVehEntered="1"/>
    <interval begin="540.00" end="570.00" id="3" nVehContrib="1" flow="120.00" occupancy="1.21" speed="13.79" length="5.00" nVehEntered="1"/>
    <interval begin="540.00" end="570.00" id="0" nVehContrib="9" flow="1080.00" occupancy="24.07" speed="6.68" length="5.00" nVehEntered="9"/>
    <interval begin="540.00" end="570.00" id="2" nVehContrib="9" flow="1080.00" occupancy="24.89" speed="6.41" length="5.00" nVehEntered="9"/>
    <interval begin="540.00" end="570.00" id="5" nVehContrib="0" flow="0.00" occupancy="0.00" speed="-1.00" length="-1.00" nVehEntered="0"/>
    <interval begin="540.00" end="570.00" id="7" nVehContrib="0" flow="0.00" occupancy="0.00" speed="-1.00" length="-1.00" nVehEntered="0"/>
    <interval begin="540.00" end="570.00" id="4" nVehContrib="9" flow="1080.00" occupancy="24.68" speed="6.51" length="5.00" nVehEntered="9"/>
    <interval begin="540.00" end="570.00" id="6" nVehContrib="9" flow="1080.00" occupancy="23.77" speed="6.78" length="5.00" nVehEntered="9"/>
    <interval begin="570.00" end="600.00" id="1" nVehContrib="2" flow="240.00" occupancy="7.62" speed="4.43" length="5.00" nVehEntered="2"/>
    <interval begin="570.00" end="600.00" id="3" nVehContrib="1" flow="120.00" occupancy="4.37" speed="3.82" length="5.00" nVehEntered="1"/>
    <interval begin="570.00" end="600.00" id="0" nVehContrib="5" flow="600.00" occupancy="8.09" speed="10.34" length="5.00" nVehEntered="5"/>
    <interval begin="570.00" end="600.00" id="2" nVehContrib="5" flow="600.00" occupancy="8.28" speed="10.13" length="5.00" nVehEntered="5"/>
    <interval begin="570.00" end="600.00" id="5" nVehContrib="2" flow="240.00" occupancy="7.92" speed="4.23" length="5.00" nVehEntered="2"/>
    <interval begin="570.00" end="600.00" id="7" nVehContrib="2" flow="240.00" occupancy="7.77" speed="4.37" length="5.00" nVehEntered="2"/>
    <interval begin="570.00" end="600.00" id="4" nVehContrib="5" flow="600.00" occupancy="7.81" speed="10.70" length="5.00" nVehEntered="5"/>
    <interval begin="570.00" end="600.00" id="6" nVehContrib="6" flow="720.00" occupancy="9.81" speed="10.27" length="5.00" nVehEntered="6"/>
    <interval begin="600.00" end="630.00" id="1" nVehContrib="12" flow="1440.00" occupancy="24.27" speed="8.51" length="5.00" nVehEntered="12"/>
    <interval begin="600.00" end="630.00" id="3" nVehContrib="11" flow="1320.00" occupancy="14.16" speed="12.98" length="5.00" nVehEntered="11"/>
    <interval begin="600.00" end="630.00" id="0" nVehContrib="0" flow="0.00" occupancy="0.00" speed="-1.00" length="-1.00" nVehEntered="0"/>
    <interval begin="600.00" end="630.00" id="2" nVehContrib="0" flow="0.00" occupancy="0.00" speed="-1.00" length="-1.00" nVehEntered="0"/>
    <interval begin="600.00" end="630.00" id="5" nVehContrib="12" flow="1440.00" occupancy="15.44" speed="13.00" length="5.00" nVehEntered="12"/>
    <interval begin="600.00" end="630.00" id="7" nVehContrib="12" flow="1440.00" occupancy="23.63" speed="8.83" length="5.00" nVehEntered="12"/>
    <interval begin="600.00" end="630.00" id="4" nVehContrib="0" flow="0.00" occupancy="0.00" speed="-1.00" length="-1.00" nVehEntered="0"/>
    <interval begin="600.00" end="630.00" id="6" nVehContrib="0" flow="0.00" occupancy="0.00" speed="-1.00" length="-1.00" nVehEntered="0"/>
    <interval begin="630.00" end="660.00" id="1" nVehContrib="3" flow="360.00" occupancy="4.63" speed="10.81" length="5.00" nVehEntered="3"/>
    <interval begin="630.00" end="660.00" id="3" nVehContrib="5" flow="600.00" occupancy="6.08" speed="13.71" length="5.00" nVehEntered="5"/>
    <interval begin="630.00" end="660.00" id="0" nVehContrib="0" flow="0.00" occupancy="0.00" speed="-1.00" length="-1.00" nVehEntered="0"/>
    <interval begin="630.00" end="660.00" id="2" nVehContrib="0" flow="0.00" occupancy="0.00" speed="-1.00" length="-1.00" nVehEntered="0"/>
    <interval begin="630.00" end="660.00" id="5" nVehContrib="4" flow="480.00" occupancy="4.88" speed="13.67" length="5.00" nVehEntered="4"/>
    <interval begin="630.00" end="660.00" id="7" nVehContrib="3" flow="360.00" occupancy="4.48" speed="11.18" length="5.00" nVehEntered="3"/>
    <interval begin="630.00" end="660.00" id="4" nVehContrib="0" flow="0.00" occupancy="0.00" speed="-1.00" length="-1.00" nVehEntered="0"/>
    <interval begin="630.00" end="660.00" id="6" nVehContrib="0" flow="0.00" occupancy="0.00" speed="-1.00" length="-1.00" nVehEntered="0"/>
    <interval begin="660.00" end="690.00" id="1" nVehContrib="5" flow="600.00" occupancy="7.48" speed="11.15" length="5.00" nVehEntered="5"/>
    <interval begin="660.00" end="690.00" id="3" nVehContrib="5" flow="600.00" occupancy="6.13" speed="13.58" length="5.00" nVehEntered="5"/>
    <interval begin="660.00" end="690.00" id="0" nVehContrib="0" flow="0.00" occupancy="0.00" speed="-1.00" length="-1.00" nVehEntered="0"/>
    <interval begin="660.00" end="690.00" id="2" nVehContrib="0" flow="0.00" occupancy="0.00" speed="-1.00" length="-1.00" nVehEntered="0"/>
    <interval begin="660.00" end="690.00" id="5" nVehContrib="5" flow="600.00" occupancy="6.10" speed="13.67" length="5.00" nVehEntered="5"/>
    <interval begin="660.00" end="690.00" id="7" nVehContrib="5" flow="600.00" occupancy="7.56" speed="11.02" length="5.00" nVehEntered="5"/>
    <interval begin="660.00" end="690.00" id="4" nVehContrib="0" flow="0.00" occupancy="0.00" speed="-1.00" length="-1.00" nVehEntered="0"/>
    <interval begin="660.00" end="690.00" id="6" nVehContrib="0" flow="0.00" occupancy="0.00" speed="-1.00" length="-1.00" nVehEntered="0"/>
    <interval begin="690.00" end="720.00" id="1" nVehContrib="6" flow="720.00" occupancy="9.05" speed="11.06" length="5.00" nVehEntered="6"/>
    <interval begin="690.00" end="720.00" id="3" nVehContrib="5" flow="600.00" occupancy="6.08" speed="13.70" length="5.00" nVehEntered="5"/>
    <interval begin="690.00" end="720.00" id="0" nVehContrib="0" flow="0.00" occupancy="0.00" speed="-1.00" length="-1.00" nVehEntered="0"/>
    <interval begin="690.00" end="720.00" id="2" nVehContrib="0" flow="0.00" occupancy="0.00" speed="-1.00" length="-1.00" nVehEntered="0"/>
    <interval begin="690.00" end="720.00" id="5" nVehContrib="5" flow="600.00" occupancy="7.12" speed="13.69" length="5.00" nVehEntered="6"/>
    <interval begin="690.00" end="720.00" id="7" nVehContrib="6" flow="720.00" occupancy="9.08" speed="11.02" length="5.00" nVehEntered="6"/>
    <interval begin="690.00" end="720.00" id="4" nVehContrib="0" flow="0.00" occupancy="0.00" speed="-1.00" length="-1.00" nVehEntered="0"/>
    <interval begin="690.00" end="720.00" id="6" nVehContrib="0" flow="0.00" occupancy="0.00" speed="-1.00" length="-1.00" nVehEntered="0"/>
    <interval begin="720.00" end="750.00" id="1" nVehContrib="1" flow="120.00" occupancy="1.52" speed="10.95" length="5.00" nVehEntered="1"/>
    <interval begin="720.00" end="750.00" id="3" nVehContrib="1" flow="120.00" occupancy="1.21" speed="13.72" length="5.00" nVehEntered="1"/>
    <interval begin="720.00" end="750.00" id="0" nVehContrib="9" flow="1080.00" occupancy="23.58" speed="6.79" length="5.00" nVehEntered="9"/>
    <interval begin="720.00" end="750.00" id="2" nVehContrib="8" flow="960.00" occupancy="21.93" speed="6.51" length="5.00" nVehEntered="8"/>
    <interval begin="720.00" end="750.00" id="5" nVehContrib="1" flow="120.00" occupancy="0.21" speed="13.52" length="5.00" nVehEntered="0"/>
    <interval begin="720.00" end="750.00" id="7" nVehContrib="1" flow="120.00" occupancy="1.51" speed="11.06" length="5.00" nVehEntered="1"/>
    <interval begin="720.00" end="750.00" id="4" nVehContrib="9" flow="1080.00" occupancy="24.16" speed="6.58" length="5.00" nVehEntered="9"/>
    <interval begin="720.00" end="750.00" id="6" nVehContrib="9" flow="1080.00" occupancy="23.87" speed="6.84" length="5.00" nVehEntered="9"/>
    <interval begin="750.00" end="780.00" id="1" nVehContrib="0" flow="0.00" occupancy="0.00" speed="-1.00" length="-1.00" nVehEntered="0"/>
    <interval begin="750.00" end="780.00" id="3" nVehContrib="0" flow="0.00" occupancy="0.00" speed="-1.00" length="-1.00" nVehEntered="0"/>
    <interval begin="750.00" end="780.00" id="0" nVehContrib="6" flow="720.00" occupancy="9.51" speed="10.55" length="5.00" nVehEntered="6"/>
    <interval begin="750.00" end="780.00" id="2" nVehContrib="6" flow="720.00" occupancy="9.87" speed="10.18" length="5.00" nVehEntered="6"/>